# CHO structure
3 atoms
3 atom types

-10.0 10.0 xlo xhi
-10.0 10.0 ylo yhi
-10.0 10.0 zlo zhi

Masses

 1 12.0000
 2  1.0000
 3 15.9990

Atoms

1 1 0.0 0.000000E+00  0.000000E+00  0.000000E+00
2 2 0.0 1.200000E+00  0.000000E+00  0.000000E+00
3 3 0.0 7.347881E-17  1.200000E+00  0.000000E+00
