3
Atoms. Timestep: 0
C 0 0 0
H 1.2 0 0
O 7.34788e-17 1.2 0
3
Atoms. Timestep: 50
C 0.123157 0.0445697 0
H 1.15529 -0.428482 0
O -0.0792797 1.23064 0
3
Atoms. Timestep: 100
C 0.12316 0.044573 0
H 1.15529 -0.428488 0
O -0.0792826 1.23064 0
3
Atoms. Timestep: 150
C 0.12316 0.044573 0
H 1.15529 -0.428488 0
O -0.0792826 1.23064 0
3
Atoms. Timestep: 200
C 0.12316 0.044573 0
H 1.15529 -0.428488 0
O -0.0792826 1.23064 0
3
Atoms. Timestep: 250
C 0.12316 0.044573 0
H 1.15529 -0.428488 0
O -0.0792826 1.23064 0
3
Atoms. Timestep: 300
C 0.12316 0.044573 0
H 1.15529 -0.428488 0
O -0.0792826 1.23064 0
3
Atoms. Timestep: 350
C 0.12316 0.044573 0
H 1.15529 -0.428488 0
O -0.0792826 1.23064 0
3
Atoms. Timestep: 400
C 0.12316 0.044573 0
H 1.15529 -0.428488 0
O -0.0792826 1.23064 0
3
Atoms. Timestep: 450
C 0.12316 0.044573 0
H 1.15529 -0.428488 0
O -0.0792826 1.23064 0
3
Atoms. Timestep: 500
C 0.12316 0.044573 0
H 1.15529 -0.428488 0
O -0.0792826 1.23064 0
3
Atoms. Timestep: 550
C 0.12316 0.044573 0
H 1.15529 -0.428488 0
O -0.0792826 1.23064 0
3
Atoms. Timestep: 600
C 0.12316 0.044573 0
H 1.15529 -0.428488 0
O -0.0792826 1.23064 0
3
Atoms. Timestep: 650
C 0.12316 0.044573 0
H 1.15529 -0.428488 0
O -0.0792826 1.23064 0
3
Atoms. Timestep: 700
C 0.12316 0.044573 0
H 1.15529 -0.428488 0
O -0.0792826 1.23064 0
3
Atoms. Timestep: 750
C 0.12316 0.044573 0
H 1.15529 -0.428488 0
O -0.0792826 1.23064 0
3
Atoms. Timestep: 800
C 0.12316 0.044573 0
H 1.15529 -0.428488 0
O -0.0792826 1.23064 0
3
Atoms. Timestep: 850
C 0.12316 0.044573 0
H 1.15529 -0.428488 0
O -0.0792826 1.23064 0
3
Atoms. Timestep: 900
C 0.12316 0.044573 0
H 1.15529 -0.428488 0
O -0.0792826 1.23064 0
3
Atoms. Timestep: 950
C 0.12316 0.044573 0
H 1.15529 -0.428488 0
O -0.0792826 1.23064 0
3
Atoms. Timestep: 1000
C 0.12316 0.044573 0
H 1.15529 -0.428488 0
O -0.0792826 1.23064 0
3
Atoms. Timestep: 1050
C 0.12316 0.044573 0
H 1.15529 -0.428488 0
O -0.0792826 1.23064 0
3
Atoms. Timestep: 1100
C 0.12316 0.044573 0
H 1.15529 -0.428488 0
O -0.0792826 1.23064 0
3
Atoms. Timestep: 1150
C 0.12316 0.044573 0
H 1.15529 -0.428488 0
O -0.0792826 1.23064 0
3
Atoms. Timestep: 1200
C 0.12316 0.044573 0
H 1.15529 -0.428488 0
O -0.0792826 1.23064 0
3
Atoms. Timestep: 1250
C 0.12316 0.044573 0
H 1.15529 -0.428488 0
O -0.0792826 1.23064 0
3
Atoms. Timestep: 1300
C 0.12316 0.044573 0
H 1.15529 -0.428488 0
O -0.0792826 1.23064 0
3
Atoms. Timestep: 1350
C 0.12316 0.044573 0
H 1.15529 -0.428488 0
O -0.0792826 1.23064 0
3
Atoms. Timestep: 1400
C 0.12316 0.044573 0
H 1.15529 -0.428488 0
O -0.0792826 1.23064 0
3
Atoms. Timestep: 1450
C 0.12316 0.044573 0
H 1.15529 -0.428488 0
O -0.0792826 1.23064 0
3
Atoms. Timestep: 1500
C 0.12316 0.044573 0
H 1.15529 -0.428488 0
O -0.0792826 1.23064 0
3
Atoms. Timestep: 1550
C 0.12316 0.044573 0
H 1.15529 -0.428488 0
O -0.0792826 1.23064 0
3
Atoms. Timestep: 1600
C 0.12316 0.044573 0
H 1.15529 -0.428488 0
O -0.0792826 1.23064 0
3
Atoms. Timestep: 1650
C 0.12316 0.044573 0
H 1.15529 -0.428488 0
O -0.0792826 1.23064 0
3
Atoms. Timestep: 1700
C 0.12316 0.044573 0
H 1.15529 -0.428488 0
O -0.0792826 1.23064 0
3
Atoms. Timestep: 1750
C 0.12316 0.044573 0
H 1.15529 -0.428488 0
O -0.0792826 1.23064 0
3
Atoms. Timestep: 1800
C 0.12316 0.044573 0
H 1.15529 -0.428488 0
O -0.0792826 1.23064 0
3
Atoms. Timestep: 1850
C 0.12316 0.044573 0
H 1.15529 -0.428488 0
O -0.0792826 1.23064 0
3
Atoms. Timestep: 1900
C 0.12316 0.044573 0
H 1.15529 -0.428488 0
O -0.0792826 1.23064 0
3
Atoms. Timestep: 1950
C 0.12316 0.044573 0
H 1.15529 -0.428488 0
O -0.0792826 1.23064 0
3
Atoms. Timestep: 2000
C 0.12316 0.044573 0
H 1.15529 -0.428488 0
O -0.0792826 1.23064 0
3
Atoms. Timestep: 2050
C 0.12316 0.044573 0
H 1.15529 -0.428488 0
O -0.0792826 1.23064 0
3
Atoms. Timestep: 2100
C 0.12316 0.044573 0
H 1.15529 -0.428488 0
O -0.0792826 1.23064 0
3
Atoms. Timestep: 2150
C 0.12316 0.044573 0
H 1.15529 -0.428488 0
O -0.0792826 1.23064 0
3
Atoms. Timestep: 2200
C 0.12316 0.044573 0
H 1.15529 -0.428488 0
O -0.0792826 1.23064 0
3
Atoms. Timestep: 2250
C 0.12316 0.044573 0
H 1.15529 -0.428488 0
O -0.0792826 1.23064 0
3
Atoms. Timestep: 2300
C 0.12316 0.044573 0
H 1.15529 -0.428488 0
O -0.0792826 1.23064 0
3
Atoms. Timestep: 2350
C 0.12316 0.044573 0
H 1.15529 -0.428488 0
O -0.0792826 1.23064 0
3
Atoms. Timestep: 2400
C 0.12316 0.044573 0
H 1.15529 -0.428488 0
O -0.0792826 1.23064 0
3
Atoms. Timestep: 2450
C 0.12316 0.044573 0
H 1.15529 -0.428488 0
O -0.0792826 1.23064 0
3
Atoms. Timestep: 2500
C 0.12316 0.044573 0
H 1.15529 -0.428488 0
O -0.0792826 1.23064 0
3
Atoms. Timestep: 2550
C 0.12316 0.044573 0
H 1.15529 -0.428488 0
O -0.0792826 1.23064 0
3
Atoms. Timestep: 2600
C 0.12316 0.044573 0
H 1.15529 -0.428488 0
O -0.0792826 1.23064 0
3
Atoms. Timestep: 2650
C 0.12316 0.044573 0
H 1.15529 -0.428488 0
O -0.0792826 1.23064 0
3
Atoms. Timestep: 2700
C 0.12316 0.044573 0
H 1.15529 -0.428488 0
O -0.0792826 1.23064 0
3
Atoms. Timestep: 2750
C 0.12316 0.044573 0
H 1.15529 -0.428488 0
O -0.0792826 1.23064 0
3
Atoms. Timestep: 2800
C 0.12316 0.044573 0
H 1.15529 -0.428488 0
O -0.0792826 1.23064 0
3
Atoms. Timestep: 2850
C 0.12316 0.044573 0
H 1.15529 -0.428488 0
O -0.0792826 1.23064 0
3
Atoms. Timestep: 2900
C 0.12316 0.044573 0
H 1.15529 -0.428488 0
O -0.0792826 1.23064 0
3
Atoms. Timestep: 2950
C 0.12316 0.044573 0
H 1.15529 -0.428488 0
O -0.0792826 1.23064 0
3
Atoms. Timestep: 3000
C 0.12316 0.044573 0
H 1.15529 -0.428488 0
O -0.0792826 1.23064 0
3
Atoms. Timestep: 3050
C 0.12316 0.044573 0
H 1.15529 -0.428488 0
O -0.0792826 1.23064 0
3
Atoms. Timestep: 3100
C 0.12316 0.044573 0
H 1.15529 -0.428488 0
O -0.0792826 1.23064 0
3
Atoms. Timestep: 3150
C 0.12316 0.044573 0
H 1.15529 -0.428488 0
O -0.0792826 1.23064 0
3
Atoms. Timestep: 3200
C 0.12316 0.044573 0
H 1.15529 -0.428488 0
O -0.0792826 1.23064 0
3
Atoms. Timestep: 3250
C 0.12316 0.044573 0
H 1.15529 -0.428488 0
O -0.0792826 1.23064 0
3
Atoms. Timestep: 3300
C 0.12316 0.044573 0
H 1.15529 -0.428488 0
O -0.0792826 1.23064 0
3
Atoms. Timestep: 3350
C 0.12316 0.044573 0
H 1.15529 -0.428488 0
O -0.0792826 1.23064 0
3
Atoms. Timestep: 3400
C 0.12316 0.044573 0
H 1.15529 -0.428488 0
O -0.0792826 1.23064 0
3
Atoms. Timestep: 3450
C 0.12316 0.044573 0
H 1.15529 -0.428488 0
O -0.0792826 1.23064 0
3
Atoms. Timestep: 3500
C 0.12316 0.044573 0
H 1.15529 -0.428488 0
O -0.0792826 1.23064 0
3
Atoms. Timestep: 3550
C 0.12316 0.044573 0
H 1.15529 -0.428488 0
O -0.0792826 1.23064 0
3
Atoms. Timestep: 3600
C 0.12316 0.044573 0
H 1.15529 -0.428488 0
O -0.0792826 1.23064 0
3
Atoms. Timestep: 3650
C 0.12316 0.044573 0
H 1.15529 -0.428488 0
O -0.0792826 1.23064 0
3
Atoms. Timestep: 3700
C 0.12316 0.044573 0
H 1.15529 -0.428488 0
O -0.0792826 1.23064 0
3
Atoms. Timestep: 3750
C 0.12316 0.044573 0
H 1.15529 -0.428488 0
O -0.0792826 1.23064 0
3
Atoms. Timestep: 3800
C 0.12316 0.044573 0
H 1.15529 -0.428488 0
O -0.0792826 1.23064 0
3
Atoms. Timestep: 3850
C 0.12316 0.044573 0
H 1.15529 -0.428488 0
O -0.0792826 1.23064 0
3
Atoms. Timestep: 3900
C 0.12316 0.044573 0
H 1.15529 -0.428488 0
O -0.0792826 1.23064 0
3
Atoms. Timestep: 3950
C 0.12316 0.044573 0
H 1.15529 -0.428488 0
O -0.0792826 1.23064 0
3
Atoms. Timestep: 4000
C 0.12316 0.044573 0
H 1.15529 -0.428488 0
O -0.0792826 1.23064 0
3
Atoms. Timestep: 4050
C 0.12316 0.044573 0
H 1.15529 -0.428488 0
O -0.0792826 1.23064 0
3
Atoms. Timestep: 4100
C 0.12316 0.044573 0
H 1.15529 -0.428488 0
O -0.0792826 1.23064 0
3
Atoms. Timestep: 4150
C 0.12316 0.044573 0
H 1.15529 -0.428488 0
O -0.0792826 1.23064 0
3
Atoms. Timestep: 4200
C 0.12316 0.044573 0
H 1.15529 -0.428488 0
O -0.0792826 1.23064 0
3
Atoms. Timestep: 4250
C 0.12316 0.044573 0
H 1.15529 -0.428488 0
O -0.0792826 1.23064 0
3
Atoms. Timestep: 4300
C 0.12316 0.044573 0
H 1.15529 -0.428488 0
O -0.0792826 1.23064 0
3
Atoms. Timestep: 4350
C 0.12316 0.044573 0
H 1.15529 -0.428488 0
O -0.0792826 1.23064 0
3
Atoms. Timestep: 4400
C 0.12316 0.044573 0
H 1.15529 -0.428488 0
O -0.0792826 1.23064 0
3
Atoms. Timestep: 4450
C 0.12316 0.044573 0
H 1.15529 -0.428488 0
O -0.0792826 1.23064 0
3
Atoms. Timestep: 4500
C 0.12316 0.044573 0
H 1.15529 -0.428488 0
O -0.0792826 1.23064 0
3
Atoms. Timestep: 4550
C 0.12316 0.044573 0
H 1.15529 -0.428488 0
O -0.0792826 1.23064 0
3
Atoms. Timestep: 4600
C 0.12316 0.044573 0
H 1.15529 -0.428488 0
O -0.0792826 1.23064 0
3
Atoms. Timestep: 4650
C 0.12316 0.044573 0
H 1.15529 -0.428488 0
O -0.0792826 1.23064 0
3
Atoms. Timestep: 4700
C 0.12316 0.044573 0
H 1.15529 -0.428488 0
O -0.0792826 1.23064 0
3
Atoms. Timestep: 4750
C 0.12316 0.044573 0
H 1.15529 -0.428488 0
O -0.0792826 1.23064 0
3
Atoms. Timestep: 4800
C 0.12316 0.044573 0
H 1.15529 -0.428488 0
O -0.0792826 1.23064 0
3
Atoms. Timestep: 4850
C 0.12316 0.044573 0
H 1.15529 -0.428488 0
O -0.0792826 1.23064 0
3
Atoms. Timestep: 4900
C 0.12316 0.044573 0
H 1.15529 -0.428488 0
O -0.0792826 1.23064 0
3
Atoms. Timestep: 4950
C 0.12316 0.044573 0
H 1.15529 -0.428488 0
O -0.0792826 1.23064 0
3
Atoms. Timestep: 5000
C 0.12316 0.044573 0
H 1.15529 -0.428488 0
O -0.0792826 1.23064 0
3
Atoms. Timestep: 5050
C 0.12316 0.044573 0
H 1.15529 -0.428488 0
O -0.0792826 1.23064 0
3
Atoms. Timestep: 5100
C 0.12316 0.044573 0
H 1.15529 -0.428488 0
O -0.0792826 1.23064 0
3
Atoms. Timestep: 5150
C 0.12316 0.044573 0
H 1.15529 -0.428488 0
O -0.0792826 1.23064 0
3
Atoms. Timestep: 5200
C 0.12316 0.044573 0
H 1.15529 -0.428488 0
O -0.0792826 1.23064 0
3
Atoms. Timestep: 5250
C 0.12316 0.044573 0
H 1.15529 -0.428488 0
O -0.0792826 1.23064 0
3
Atoms. Timestep: 5300
C 0.12316 0.044573 0
H 1.15529 -0.428488 0
O -0.0792826 1.23064 0
3
Atoms. Timestep: 5350
C 0.12316 0.044573 0
H 1.15529 -0.428488 0
O -0.0792826 1.23064 0
3
Atoms. Timestep: 5400
C 0.12316 0.044573 0
H 1.15529 -0.428488 0
O -0.0792826 1.23064 0
3
Atoms. Timestep: 5450
C 0.12316 0.044573 0
H 1.15529 -0.428488 0
O -0.0792826 1.23064 0
3
Atoms. Timestep: 5500
C 0.12316 0.044573 0
H 1.15529 -0.428488 0
O -0.0792826 1.23064 0
3
Atoms. Timestep: 5550
C 0.12316 0.044573 0
H 1.15529 -0.428488 0
O -0.0792826 1.23064 0
3
Atoms. Timestep: 5600
C 0.12316 0.044573 0
H 1.15529 -0.428488 0
O -0.0792826 1.23064 0
3
Atoms. Timestep: 5650
C 0.12316 0.044573 0
H 1.15529 -0.428488 0
O -0.0792826 1.23064 0
3
Atoms. Timestep: 5700
C 0.12316 0.044573 0
H 1.15529 -0.428488 0
O -0.0792826 1.23064 0
3
Atoms. Timestep: 5750
C 0.12316 0.044573 0
H 1.15529 -0.428488 0
O -0.0792826 1.23064 0
3
Atoms. Timestep: 5800
C 0.12316 0.044573 0
H 1.15529 -0.428488 0
O -0.0792826 1.23064 0
3
Atoms. Timestep: 5850
C 0.12316 0.044573 0
H 1.15529 -0.428488 0
O -0.0792826 1.23064 0
3
Atoms. Timestep: 5900
C 0.12316 0.044573 0
H 1.15529 -0.428488 0
O -0.0792826 1.23064 0
3
Atoms. Timestep: 5950
C 0.12316 0.044573 0
H 1.15529 -0.428488 0
O -0.0792826 1.23064 0
3
Atoms. Timestep: 6000
C 0.12316 0.044573 0
H 1.15529 -0.428488 0
O -0.0792826 1.23064 0
3
Atoms. Timestep: 6050
C 0.12316 0.044573 0
H 1.15529 -0.428488 0
O -0.0792826 1.23064 0
3
Atoms. Timestep: 6100
C 0.12316 0.044573 0
H 1.15529 -0.428488 0
O -0.0792826 1.23064 0
3
Atoms. Timestep: 6150
C 0.12316 0.044573 0
H 1.15529 -0.428488 0
O -0.0792826 1.23064 0
3
Atoms. Timestep: 6200
C 0.12316 0.044573 0
H 1.15529 -0.428488 0
O -0.0792826 1.23064 0
3
Atoms. Timestep: 6250
C 0.12316 0.044573 0
H 1.15529 -0.428488 0
O -0.0792826 1.23064 0
3
Atoms. Timestep: 6300
C 0.12316 0.044573 0
H 1.15529 -0.428488 0
O -0.0792826 1.23064 0
3
Atoms. Timestep: 6350
C 0.12316 0.044573 0
H 1.15529 -0.428488 0
O -0.0792826 1.23064 0
3
Atoms. Timestep: 6400
C 0.12316 0.044573 0
H 1.15529 -0.428488 0
O -0.0792826 1.23064 0
3
Atoms. Timestep: 6450
C 0.12316 0.044573 0
H 1.15529 -0.428488 0
O -0.0792826 1.23064 0
3
Atoms. Timestep: 6500
C 0.12316 0.044573 0
H 1.15529 -0.428488 0
O -0.0792826 1.23064 0
3
Atoms. Timestep: 6550
C 0.12316 0.044573 0
H 1.15529 -0.428488 0
O -0.0792826 1.23064 0
3
Atoms. Timestep: 6600
C 0.12316 0.044573 0
H 1.15529 -0.428488 0
O -0.0792826 1.23064 0
3
Atoms. Timestep: 6650
C 0.12316 0.044573 0
H 1.15529 -0.428488 0
O -0.0792826 1.23064 0
3
Atoms. Timestep: 6700
C 0.12316 0.044573 0
H 1.15529 -0.428488 0
O -0.0792826 1.23064 0
3
Atoms. Timestep: 6750
C 0.12316 0.044573 0
H 1.15529 -0.428488 0
O -0.0792826 1.23064 0
3
Atoms. Timestep: 6800
C 0.12316 0.044573 0
H 1.15529 -0.428488 0
O -0.0792826 1.23064 0
3
Atoms. Timestep: 6850
C 0.12316 0.044573 0
H 1.15529 -0.428488 0
O -0.0792826 1.23064 0
3
Atoms. Timestep: 6900
C 0.12316 0.044573 0
H 1.15529 -0.428488 0
O -0.0792826 1.23064 0
3
Atoms. Timestep: 6950
C 0.12316 0.044573 0
H 1.15529 -0.428488 0
O -0.0792826 1.23064 0
3
Atoms. Timestep: 7000
C 0.12316 0.044573 0
H 1.15529 -0.428488 0
O -0.0792826 1.23064 0
3
Atoms. Timestep: 7050
C 0.12316 0.044573 0
H 1.15529 -0.428488 0
O -0.0792826 1.23064 0
3
Atoms. Timestep: 7100
C 0.12316 0.044573 0
H 1.15529 -0.428488 0
O -0.0792826 1.23064 0
3
Atoms. Timestep: 7150
C 0.12316 0.044573 0
H 1.15529 -0.428488 0
O -0.0792826 1.23064 0
3
Atoms. Timestep: 7200
C 0.12316 0.044573 0
H 1.15529 -0.428488 0
O -0.0792826 1.23064 0
3
Atoms. Timestep: 7250
C 0.12316 0.044573 0
H 1.15529 -0.428488 0
O -0.0792826 1.23064 0
3
Atoms. Timestep: 7300
C 0.12316 0.0445729 0
H 1.15529 -0.428488 0
O -0.0792826 1.23064 0
3
Atoms. Timestep: 7350
C 0.12316 0.0445729 0
H 1.15529 -0.428488 0
O -0.0792826 1.23064 0
3
Atoms. Timestep: 7400
C 0.12316 0.0445729 0
H 1.15529 -0.428488 0
O -0.0792826 1.23064 0
3
Atoms. Timestep: 7450
C 0.12316 0.0445729 0
H 1.15529 -0.428488 0
O -0.0792826 1.23064 0
3
Atoms. Timestep: 7500
C 0.12316 0.0445729 0
H 1.15529 -0.428488 0
O -0.0792826 1.23064 0
3
Atoms. Timestep: 7550
C 0.12316 0.0445729 0
H 1.15529 -0.428488 0
O -0.0792826 1.23064 0
3
Atoms. Timestep: 7600
C 0.12316 0.0445729 0
H 1.15529 -0.428488 0
O -0.0792826 1.23064 0
3
Atoms. Timestep: 7650
C 0.12316 0.0445729 0
H 1.15529 -0.428488 0
O -0.0792826 1.23064 0
3
Atoms. Timestep: 7700
C 0.12316 0.0445729 0
H 1.15529 -0.428488 0
O -0.0792826 1.23064 0
3
Atoms. Timestep: 7750
C 0.12316 0.0445729 0
H 1.15529 -0.428488 0
O -0.0792826 1.23064 0
3
Atoms. Timestep: 7800
C 0.12316 0.0445729 0
H 1.15529 -0.428488 0
O -0.0792826 1.23064 0
3
Atoms. Timestep: 7850
C 0.12316 0.0445729 0
H 1.15529 -0.428488 0
O -0.0792826 1.23064 0
3
Atoms. Timestep: 7900
C 0.12316 0.0445729 0
H 1.15529 -0.428488 0
O -0.0792826 1.23064 0
3
Atoms. Timestep: 7950
C 0.12316 0.0445729 0
H 1.15529 -0.428488 0
O -0.0792826 1.23064 0
3
Atoms. Timestep: 8000
C 0.12316 0.0445729 0
H 1.15529 -0.428488 0
O -0.0792826 1.23064 0
3
Atoms. Timestep: 8050
C 0.12316 0.0445729 0
H 1.15529 -0.428488 0
O -0.0792826 1.23064 0
3
Atoms. Timestep: 8100
C 0.12316 0.0445729 0
H 1.15529 -0.428488 0
O -0.0792826 1.23064 0
3
Atoms. Timestep: 8150
C 0.12316 0.0445729 0
H 1.15529 -0.428488 0
O -0.0792826 1.23064 0
3
Atoms. Timestep: 8200
C 0.12316 0.0445729 0
H 1.15529 -0.428488 0
O -0.0792826 1.23064 0
3
Atoms. Timestep: 8250
C 0.12316 0.0445729 0
H 1.15529 -0.428488 0
O -0.0792826 1.23064 0
3
Atoms. Timestep: 8300
C 0.12316 0.0445729 0
H 1.15529 -0.428488 0
O -0.0792826 1.23064 0
3
Atoms. Timestep: 8350
C 0.12316 0.0445729 0
H 1.15529 -0.428488 0
O -0.0792826 1.23064 0
3
Atoms. Timestep: 8400
C 0.12316 0.0445729 0
H 1.15529 -0.428488 0
O -0.0792826 1.23064 0
3
Atoms. Timestep: 8450
C 0.12316 0.0445729 0
H 1.15529 -0.428488 0
O -0.0792826 1.23064 0
3
Atoms. Timestep: 8500
C 0.12316 0.0445729 0
H 1.15529 -0.428488 0
O -0.0792826 1.23064 0
3
Atoms. Timestep: 8550
C 0.12316 0.0445729 0
H 1.15529 -0.428488 0
O -0.0792826 1.23064 0
3
Atoms. Timestep: 8600
C 0.12316 0.0445729 0
H 1.15529 -0.428488 0
O -0.0792826 1.23064 0
3
Atoms. Timestep: 8650
C 0.12316 0.0445729 0
H 1.15529 -0.428488 0
O -0.0792826 1.23064 0
3
Atoms. Timestep: 8700
C 0.12316 0.0445729 0
H 1.15529 -0.428488 0
O -0.0792826 1.23064 0
3
Atoms. Timestep: 8750
C 0.12316 0.0445729 0
H 1.15529 -0.428488 0
O -0.0792826 1.23064 0
3
Atoms. Timestep: 8800
C 0.12316 0.0445729 0
H 1.15529 -0.428488 0
O -0.0792826 1.23064 0
3
Atoms. Timestep: 8850
C 0.12316 0.0445729 0
H 1.15529 -0.428488 0
O -0.0792826 1.23064 0
3
Atoms. Timestep: 8900
C 0.12316 0.0445729 0
H 1.15529 -0.428488 0
O -0.0792826 1.23064 0
3
Atoms. Timestep: 8950
C 0.12316 0.0445729 0
H 1.15529 -0.428488 0
O -0.0792826 1.23064 0
3
Atoms. Timestep: 9000
C 0.12316 0.0445729 0
H 1.15529 -0.428488 0
O -0.0792826 1.23064 0
3
Atoms. Timestep: 9050
C 0.12316 0.0445729 0
H 1.15529 -0.428488 0
O -0.0792826 1.23064 0
3
Atoms. Timestep: 9100
C 0.12316 0.0445729 0
H 1.15529 -0.428488 0
O -0.0792826 1.23064 0
3
Atoms. Timestep: 9150
C 0.12316 0.0445729 0
H 1.15529 -0.428488 0
O -0.0792826 1.23064 0
3
Atoms. Timestep: 9200
C 0.12316 0.0445729 0
H 1.15529 -0.428488 0
O -0.0792826 1.23064 0
3
Atoms. Timestep: 9250
C 0.12316 0.0445729 0
H 1.15529 -0.428488 0
O -0.0792826 1.23064 0
3
Atoms. Timestep: 9300
C 0.12316 0.0445729 0
H 1.15529 -0.428488 0
O -0.0792826 1.23064 0
3
Atoms. Timestep: 9350
C 0.12316 0.0445729 0
H 1.15529 -0.428488 0
O -0.0792826 1.23064 0
3
Atoms. Timestep: 9400
C 0.12316 0.0445729 0
H 1.15529 -0.428488 0
O -0.0792826 1.23064 0
3
Atoms. Timestep: 9450
C 0.12316 0.0445729 0
H 1.15529 -0.428488 0
O -0.0792826 1.23064 0
3
Atoms. Timestep: 9500
C 0.12316 0.0445729 0
H 1.15529 -0.428488 0
O -0.0792826 1.23064 0
3
Atoms. Timestep: 9550
C 0.12316 0.0445729 0
H 1.15529 -0.428488 0
O -0.0792826 1.23064 0
3
Atoms. Timestep: 9600
C 0.12316 0.0445729 0
H 1.15529 -0.428488 0
O -0.0792826 1.23064 0
3
Atoms. Timestep: 9650
C 0.12316 0.0445729 0
H 1.15529 -0.428488 0
O -0.0792826 1.23064 0
3
Atoms. Timestep: 9700
C 0.12316 0.0445729 0
H 1.15529 -0.428488 0
O -0.0792826 1.23064 0
3
Atoms. Timestep: 9750
C 0.12316 0.0445729 0
H 1.15529 -0.428488 0
O -0.0792826 1.23064 0
3
Atoms. Timestep: 9800
C 0.12316 0.0445729 0
H 1.15529 -0.428488 0
O -0.0792826 1.23064 0
3
Atoms. Timestep: 9850
C 0.12316 0.0445729 0
H 1.15529 -0.428488 0
O -0.0792826 1.23064 0
3
Atoms. Timestep: 9900
C 0.12316 0.0445729 0
H 1.15529 -0.428488 0
O -0.0792826 1.23064 0
3
Atoms. Timestep: 9950
C 0.12316 0.0445729 0
H 1.15529 -0.428488 0
O -0.0792826 1.23064 0
3
Atoms. Timestep: 10000
C 0.12316 0.0445729 0
H 1.15529 -0.428488 0
O -0.0792826 1.23064 0
3
Atoms. Timestep: 10050
C 0.12316 0.0445729 0
H 1.15529 -0.428488 0
O -0.0792826 1.23064 0
3
Atoms. Timestep: 10100
C 0.12316 0.0445729 0
H 1.15529 -0.428488 0
O -0.0792826 1.23064 0
3
Atoms. Timestep: 10150
C 0.12316 0.0445729 0
H 1.15529 -0.428488 0
O -0.0792826 1.23064 0
3
Atoms. Timestep: 10200
C 0.12316 0.0445729 0
H 1.15529 -0.428488 0
O -0.0792826 1.23064 0
3
Atoms. Timestep: 10250
C 0.12316 0.0445729 0
H 1.15529 -0.428488 0
O -0.0792826 1.23064 0
3
Atoms. Timestep: 10300
C 0.12316 0.0445729 0
H 1.15529 -0.428488 0
O -0.0792826 1.23064 0
3
Atoms. Timestep: 10350
C 0.12316 0.0445729 0
H 1.15529 -0.428488 0
O -0.0792826 1.23064 0
3
Atoms. Timestep: 10400
C 0.12316 0.0445729 0
H 1.15529 -0.428488 0
O -0.0792826 1.23064 0
3
Atoms. Timestep: 10450
C 0.12316 0.0445729 0
H 1.15529 -0.428488 0
O -0.0792826 1.23064 0
3
Atoms. Timestep: 10500
C 0.12316 0.0445729 0
H 1.15529 -0.428488 0
O -0.0792826 1.23064 0
3
Atoms. Timestep: 10550
C 0.12316 0.0445729 0
H 1.15529 -0.428488 0
O -0.0792826 1.23064 0
3
Atoms. Timestep: 10600
C 0.12316 0.0445729 0
H 1.15529 -0.428488 0
O -0.0792826 1.23064 0
3
Atoms. Timestep: 10650
C 0.12316 0.0445729 0
H 1.15529 -0.428488 0
O -0.0792826 1.23064 0
3
Atoms. Timestep: 10700
C 0.12316 0.0445729 0
H 1.15529 -0.428488 0
O -0.0792826 1.23064 0
3
Atoms. Timestep: 10750
C 0.12316 0.0445729 0
H 1.15529 -0.428488 0
O -0.0792826 1.23064 0
3
Atoms. Timestep: 10800
C 0.12316 0.0445729 0
H 1.15529 -0.428488 0
O -0.0792826 1.23064 0
3
Atoms. Timestep: 10850
C 0.12316 0.0445729 0
H 1.15529 -0.428488 0
O -0.0792826 1.23064 0
3
Atoms. Timestep: 10900
C 0.12316 0.0445729 0
H 1.15529 -0.428488 0
O -0.0792826 1.23064 0
3
Atoms. Timestep: 10950
C 0.12316 0.0445729 0
H 1.15529 -0.428488 0
O -0.0792826 1.23064 0
3
Atoms. Timestep: 11000
C 0.12316 0.0445729 0
H 1.15529 -0.428488 0
O -0.0792826 1.23064 0
3
Atoms. Timestep: 11050
C 0.12316 0.0445729 0
H 1.15529 -0.428488 0
O -0.0792826 1.23064 0
3
Atoms. Timestep: 11100
C 0.12316 0.0445729 0
H 1.15529 -0.428488 0
O -0.0792826 1.23064 0
3
Atoms. Timestep: 11150
C 0.12316 0.0445729 0
H 1.15529 -0.428488 0
O -0.0792826 1.23064 0
3
Atoms. Timestep: 11200
C 0.12316 0.0445729 0
H 1.15529 -0.428488 0
O -0.0792826 1.23064 0
3
Atoms. Timestep: 11250
C 0.12316 0.0445729 0
H 1.15529 -0.428488 0
O -0.0792826 1.23064 0
3
Atoms. Timestep: 11300
C 0.12316 0.0445729 0
H 1.15529 -0.428488 0
O -0.0792826 1.23064 0
3
Atoms. Timestep: 11350
C 0.12316 0.0445729 0
H 1.15529 -0.428488 0
O -0.0792826 1.23064 0
3
Atoms. Timestep: 11400
C 0.12316 0.0445729 0
H 1.15529 -0.428488 0
O -0.0792826 1.23064 0
3
Atoms. Timestep: 11450
C 0.12316 0.0445729 0
H 1.15529 -0.428488 0
O -0.0792826 1.23064 0
3
Atoms. Timestep: 11500
C 0.12316 0.0445729 0
H 1.15529 -0.428488 0
O -0.0792826 1.23064 0
3
Atoms. Timestep: 11550
C 0.12316 0.0445729 0
H 1.15529 -0.428488 0
O -0.0792826 1.23064 0
3
Atoms. Timestep: 11600
C 0.12316 0.0445729 0
H 1.15529 -0.428488 0
O -0.0792826 1.23064 0
3
Atoms. Timestep: 11650
C 0.12316 0.0445729 0
H 1.15529 -0.428488 0
O -0.0792826 1.23064 0
3
Atoms. Timestep: 11700
C 0.12316 0.0445729 0
H 1.15529 -0.428488 0
O -0.0792826 1.23064 0
3
Atoms. Timestep: 11750
C 0.12316 0.0445729 0
H 1.15529 -0.428488 0
O -0.0792825 1.23064 0
3
Atoms. Timestep: 11800
C 0.12316 0.0445729 0
H 1.15529 -0.428488 0
O -0.0792825 1.23064 0
3
Atoms. Timestep: 11850
C 0.12316 0.0445729 0
H 1.15529 -0.428488 0
O -0.0792825 1.23064 0
3
Atoms. Timestep: 11900
C 0.12316 0.0445729 0
H 1.15529 -0.428488 0
O -0.0792825 1.23064 0
3
Atoms. Timestep: 11950
C 0.12316 0.0445729 0
H 1.15529 -0.428488 0
O -0.0792825 1.23064 0
3
Atoms. Timestep: 12000
C 0.12316 0.0445729 0
H 1.15529 -0.428488 0
O -0.0792825 1.23064 0
3
Atoms. Timestep: 12050
C 0.12316 0.0445729 0
H 1.15529 -0.428488 0
O -0.0792825 1.23064 0
3
Atoms. Timestep: 12100
C 0.12316 0.0445729 0
H 1.15529 -0.428488 0
O -0.0792825 1.23064 0
3
Atoms. Timestep: 12150
C 0.12316 0.0445729 0
H 1.15529 -0.428488 0
O -0.0792825 1.23064 0
3
Atoms. Timestep: 12200
C 0.12316 0.0445729 0
H 1.15529 -0.428488 0
O -0.0792825 1.23064 0
3
Atoms. Timestep: 12250
C 0.12316 0.0445729 0
H 1.15529 -0.428488 0
O -0.0792825 1.23064 0
3
Atoms. Timestep: 12300
C 0.12316 0.0445729 0
H 1.15529 -0.428488 0
O -0.0792825 1.23064 0
3
Atoms. Timestep: 12350
C 0.12316 0.0445729 0
H 1.15529 -0.428488 0
O -0.0792825 1.23064 0
3
Atoms. Timestep: 12400
C 0.12316 0.0445729 0
H 1.15529 -0.428488 0
O -0.0792825 1.23064 0
3
Atoms. Timestep: 12450
C 0.12316 0.0445729 0
H 1.15529 -0.428488 0
O -0.0792825 1.23064 0
3
Atoms. Timestep: 12500
C 0.12316 0.0445729 0
H 1.15529 -0.428488 0
O -0.0792825 1.23064 0
3
Atoms. Timestep: 12550
C 0.12316 0.0445729 0
H 1.15529 -0.428488 0
O -0.0792825 1.23064 0
3
Atoms. Timestep: 12600
C 0.12316 0.0445729 0
H 1.15529 -0.428488 0
O -0.0792825 1.23064 0
3
Atoms. Timestep: 12650
C 0.12316 0.0445729 0
H 1.15529 -0.428488 0
O -0.0792825 1.23064 0
3
Atoms. Timestep: 12700
C 0.12316 0.0445729 0
H 1.15529 -0.428488 0
O -0.0792825 1.23064 0
3
Atoms. Timestep: 12750
C 0.12316 0.0445729 0
H 1.15529 -0.428488 0
O -0.0792825 1.23064 0
3
Atoms. Timestep: 12800
C 0.12316 0.0445729 0
H 1.15529 -0.428488 0
O -0.0792825 1.23064 0
3
Atoms. Timestep: 12850
C 0.12316 0.0445729 0
H 1.15529 -0.428488 0
O -0.0792825 1.23064 0
3
Atoms. Timestep: 12900
C 0.12316 0.0445729 0
H 1.15529 -0.428488 0
O -0.0792825 1.23064 0
3
Atoms. Timestep: 12950
C 0.12316 0.0445729 0
H 1.15529 -0.428488 0
O -0.0792825 1.23064 0
3
Atoms. Timestep: 13000
C 0.12316 0.0445729 0
H 1.15529 -0.428488 0
O -0.0792825 1.23064 0
3
Atoms. Timestep: 13050
C 0.12316 0.0445729 0
H 1.15529 -0.428488 0
O -0.0792825 1.23064 0
3
Atoms. Timestep: 13100
C 0.12316 0.0445729 0
H 1.15529 -0.428488 0
O -0.0792825 1.23064 0
3
Atoms. Timestep: 13150
C 0.12316 0.0445729 0
H 1.15529 -0.428488 0
O -0.0792825 1.23064 0
3
Atoms. Timestep: 13200
C 0.12316 0.0445729 0
H 1.15529 -0.428488 0
O -0.0792825 1.23064 0
3
Atoms. Timestep: 13250
C 0.12316 0.0445729 0
H 1.15529 -0.428488 0
O -0.0792825 1.23064 0
3
Atoms. Timestep: 13300
C 0.12316 0.0445729 0
H 1.15529 -0.428488 0
O -0.0792825 1.23064 0
3
Atoms. Timestep: 13350
C 0.12316 0.0445729 0
H 1.15529 -0.428488 0
O -0.0792825 1.23064 0
3
Atoms. Timestep: 13400
C 0.12316 0.0445729 0
H 1.15529 -0.428488 0
O -0.0792825 1.23064 0
3
Atoms. Timestep: 13450
C 0.12316 0.0445729 0
H 1.15529 -0.428488 0
O -0.0792825 1.23064 0
3
Atoms. Timestep: 13500
C 0.12316 0.0445729 0
H 1.15529 -0.428488 0
O -0.0792825 1.23064 0
3
Atoms. Timestep: 13550
C 0.12316 0.0445729 0
H 1.15529 -0.428488 0
O -0.0792825 1.23064 0
3
Atoms. Timestep: 13600
C 0.12316 0.0445729 0
H 1.15529 -0.428488 0
O -0.0792825 1.23064 0
3
Atoms. Timestep: 13650
C 0.12316 0.0445729 0
H 1.15529 -0.428488 0
O -0.0792825 1.23064 0
3
Atoms. Timestep: 13700
C 0.12316 0.0445729 0
H 1.15529 -0.428488 0
O -0.0792825 1.23064 0
3
Atoms. Timestep: 13750
C 0.12316 0.0445729 0
H 1.15529 -0.428488 0
O -0.0792825 1.23064 0
3
Atoms. Timestep: 13800
C 0.12316 0.0445729 0
H 1.15529 -0.428488 0
O -0.0792825 1.23064 0
3
Atoms. Timestep: 13850
C 0.12316 0.0445729 0
H 1.15529 -0.428488 0
O -0.0792825 1.23064 0
3
Atoms. Timestep: 13900
C 0.12316 0.0445729 0
H 1.15529 -0.428488 0
O -0.0792825 1.23064 0
3
Atoms. Timestep: 13950
C 0.12316 0.0445729 0
H 1.15529 -0.428488 0
O -0.0792825 1.23064 0
3
Atoms. Timestep: 14000
C 0.12316 0.0445729 0
H 1.15529 -0.428488 0
O -0.0792825 1.23064 0
3
Atoms. Timestep: 14050
C 0.12316 0.0445729 0
H 1.15529 -0.428488 0
O -0.0792825 1.23064 0
3
Atoms. Timestep: 14100
C 0.12316 0.0445729 0
H 1.15529 -0.428488 0
O -0.0792825 1.23064 0
3
Atoms. Timestep: 14150
C 0.12316 0.0445729 0
H 1.15529 -0.428488 0
O -0.0792825 1.23064 0
3
Atoms. Timestep: 14200
C 0.12316 0.0445729 0
H 1.15529 -0.428488 0
O -0.0792825 1.23064 0
3
Atoms. Timestep: 14250
C 0.12316 0.0445729 0
H 1.15529 -0.428488 0
O -0.0792825 1.23064 0
3
Atoms. Timestep: 14300
C 0.12316 0.0445729 0
H 1.15529 -0.428488 0
O -0.0792825 1.23064 0
3
Atoms. Timestep: 14350
C 0.12316 0.0445729 0
H 1.15529 -0.428488 0
O -0.0792825 1.23064 0
3
Atoms. Timestep: 14400
C 0.12316 0.0445729 0
H 1.15529 -0.428488 0
O -0.0792825 1.23064 0
3
Atoms. Timestep: 14450
C 0.12316 0.0445729 0
H 1.15529 -0.428488 0
O -0.0792825 1.23064 0
3
Atoms. Timestep: 14500
C 0.12316 0.0445729 0
H 1.15529 -0.428488 0
O -0.0792825 1.23064 0
3
Atoms. Timestep: 14550
C 0.12316 0.0445729 0
H 1.15529 -0.428488 0
O -0.0792825 1.23064 0
3
Atoms. Timestep: 14600
C 0.12316 0.0445729 0
H 1.15529 -0.428488 0
O -0.0792825 1.23064 0
3
Atoms. Timestep: 14650
C 0.12316 0.0445729 0
H 1.15529 -0.428488 0
O -0.0792825 1.23064 0
3
Atoms. Timestep: 14700
C 0.12316 0.0445729 0
H 1.15529 -0.428488 0
O -0.0792825 1.23064 0
3
Atoms. Timestep: 14750
C 0.12316 0.0445729 0
H 1.15529 -0.428488 0
O -0.0792825 1.23064 0
3
Atoms. Timestep: 14800
C 0.12316 0.0445729 0
H 1.15529 -0.428488 0
O -0.0792825 1.23064 0
3
Atoms. Timestep: 14850
C 0.12316 0.0445729 0
H 1.15529 -0.428488 0
O -0.0792825 1.23064 0
3
Atoms. Timestep: 14900
C 0.12316 0.0445729 0
H 1.15529 -0.428488 0
O -0.0792825 1.23064 0
3
Atoms. Timestep: 14950
C 0.12316 0.0445729 0
H 1.15529 -0.428488 0
O -0.0792825 1.23064 0
3
Atoms. Timestep: 15000
C 0.12316 0.0445729 0
H 1.15529 -0.428488 0
O -0.0792825 1.23064 0
3
Atoms. Timestep: 15050
C 0.12316 0.0445729 0
H 1.15529 -0.428488 0
O -0.0792825 1.23064 0
3
Atoms. Timestep: 15100
C 0.12316 0.0445729 0
H 1.15529 -0.428488 0
O -0.0792825 1.23064 0
3
Atoms. Timestep: 15150
C 0.12316 0.0445729 0
H 1.15529 -0.428488 0
O -0.0792825 1.23064 0
3
Atoms. Timestep: 15200
C 0.12316 0.0445729 0
H 1.15529 -0.428488 0
O -0.0792825 1.23064 0
3
Atoms. Timestep: 15250
C 0.12316 0.0445729 0
H 1.15529 -0.428488 0
O -0.0792825 1.23064 0
3
Atoms. Timestep: 15300
C 0.12316 0.0445729 0
H 1.15529 -0.428488 0
O -0.0792825 1.23064 0
3
Atoms. Timestep: 15350
C 0.12316 0.0445729 0
H 1.15529 -0.428488 0
O -0.0792825 1.23064 0
3
Atoms. Timestep: 15400
C 0.12316 0.0445729 0
H 1.15529 -0.428488 0
O -0.0792825 1.23064 0
3
Atoms. Timestep: 15450
C 0.12316 0.0445729 0
H 1.15529 -0.428488 0
O -0.0792825 1.23064 0
3
Atoms. Timestep: 15500
C 0.12316 0.0445729 0
H 1.15529 -0.428488 0
O -0.0792825 1.23064 0
3
Atoms. Timestep: 15550
C 0.12316 0.0445729 0
H 1.15529 -0.428488 0
O -0.0792825 1.23064 0
3
Atoms. Timestep: 15600
C 0.12316 0.0445729 0
H 1.15529 -0.428488 0
O -0.0792825 1.23064 0
3
Atoms. Timestep: 15650
C 0.12316 0.0445729 0
H 1.15529 -0.428488 0
O -0.0792825 1.23064 0
3
Atoms. Timestep: 15700
C 0.12316 0.0445729 0
H 1.15529 -0.428488 0
O -0.0792825 1.23064 0
3
Atoms. Timestep: 15750
C 0.12316 0.0445729 0
H 1.15529 -0.428488 0
O -0.0792825 1.23064 0
3
Atoms. Timestep: 15800
C 0.12316 0.0445729 0
H 1.15529 -0.428488 0
O -0.0792825 1.23064 0
3
Atoms. Timestep: 15850
C 0.12316 0.0445729 0
H 1.15529 -0.428488 0
O -0.0792825 1.23064 0
3
Atoms. Timestep: 15900
C 0.12316 0.0445729 0
H 1.15529 -0.428488 0
O -0.0792825 1.23064 0
3
Atoms. Timestep: 15950
C 0.12316 0.0445729 0
H 1.15529 -0.428488 0
O -0.0792825 1.23064 0
3
Atoms. Timestep: 16000
C 0.12316 0.0445729 0
H 1.15529 -0.428488 0
O -0.0792825 1.23064 0
3
Atoms. Timestep: 16050
C 0.12316 0.0445729 0
H 1.15529 -0.428488 0
O -0.0792825 1.23064 0
3
Atoms. Timestep: 16100
C 0.12316 0.0445729 0
H 1.15529 -0.428488 0
O -0.0792825 1.23064 0
3
Atoms. Timestep: 16150
C 0.12316 0.0445729 0
H 1.15529 -0.428488 0
O -0.0792825 1.23064 0
3
Atoms. Timestep: 16200
C 0.12316 0.0445729 0
H 1.15529 -0.428488 0
O -0.0792825 1.23064 0
3
Atoms. Timestep: 16250
C 0.12316 0.0445729 0
H 1.15529 -0.428488 0
O -0.0792825 1.23064 0
3
Atoms. Timestep: 16300
C 0.12316 0.0445729 0
H 1.15529 -0.428488 0
O -0.0792825 1.23064 0
3
Atoms. Timestep: 16350
C 0.12316 0.0445729 0
H 1.15529 -0.428488 0
O -0.0792825 1.23064 0
3
Atoms. Timestep: 16400
C 0.12316 0.0445729 0
H 1.15529 -0.428488 0
O -0.0792825 1.23064 0
3
Atoms. Timestep: 16450
C 0.12316 0.0445729 0
H 1.15529 -0.428488 0
O -0.0792825 1.23064 0
3
Atoms. Timestep: 16500